<?xml version="1.0" encoding="UTF-8"?>

<!-- generated on 01/27/19 19:18:41 by Eclipse SUMO Version v1_1_0+0008-ffcb6ceee0
<configuration xmlns:xsi="http://www.w3.org/2001/XMLSchema-instance" xsi:noNamespaceSchemaLocation="http://sumo.dlr.de/xsd/sumoConfiguration.xsd">

    <input>
        <net-file value="C:\Users\sunde\Documents\GitHub\AR-Sandbox-for-Construction-Planning\src\AR_Sumobox\Assets\Generated\Networks\new_network\osm.net.xml"/>
        <route-files value="C:\Users\sunde\Documents\GitHub\AR-Sandbox-for-Construction-Planning\src\AR_Sumobox\Assets\Generated\Networks\new_network\trips.trips.xml"/>
        <additional-files value="C:\Users\sunde\Documents\GitHub\AR-Sandbox-for-Construction-Planning\src\AR_Sumobox\Assets\Generated\Networks\new_network\osm_stops.add.xml"/>
    </input>

    <output>
        <vehroute-output value="C:\Users\sunde\Documents\GitHub\AR-Sandbox-for-Construction-Planning\src\AR_Sumobox\Assets\Generated\Networks\new_network\vehroutes.xml"/>
        <stop-output value="C:\Users\sunde\Documents\GitHub\AR-Sandbox-for-Construction-Planning\src\AR_Sumobox\Assets\Generated\Networks\new_network\stopinfos.xml"/>
    </output>

    <time>
        <begin value="0"/>
    </time>

    <processing>
        <ignore-route-errors value="true"/>
    </processing>

    <routing>
        <device.rerouting.adaptation-interval value="0"/>
    </routing>

    <report>
        <error-log value="C:\Users\sunde\Documents\GitHub\AR-Sandbox-for-Construction-Planning\src\AR_Sumobox\Assets\Generated\Networks\new_network\trips.trips.xml.errorlog"/>
        <no-step-log value="true"/>
    </report>

</configuration>
-->

<routes xmlns:xsi="http://www.w3.org/2001/XMLSchema-instance" xsi:noNamespaceSchemaLocation="http://sumo.dlr.de/xsd/routes_file.xsd">
</routes>
